                              Psi4 1.0.0 Driver

  ==> Input File <==

--------------------------------------------------------------------------
"""This is a template for psi4 input format."""
import sys
import numpy

from fermilib.config import *
from fermilib.ops import MolecularData
from fermilib.ops._interaction_rdm import (InteractionRDM,
                                           unpack_spatial_rdm)
from fermilib.ops._interaction_tensor import (one_body_basis_change,
                                              two_body_basis_change)

sys.path.append('/Users/ryanbabbush/Desktop/fermilib/src/psi4tmp')
import parser_functions

# Set memory that job can use in megabytes.
memory 8000 mb

# Initialize molecular data.
_description = ''
if _description == 'None':
  _description = None
molecule = MolecularData([('Li', (0.0, 0.0, 0.0)), ('H', (0.0, 0.0, 1.45))],
                         'sto-3g',
                         1,
                         0,
                         _description)

# Set molecular geometry and symmetry.
molecule mol {
Li 0.0 0.0 0.0
H 0.0 0.0 1.45
symmetry c1
}
mol.set_multiplicity(1)
mol.set_molecular_charge(0)

# Set reference and guess.
if molecule.multiplicity == 1:
  set reference rhf
  set guess sad
else:
  set reference rohf
  set guess gwh

# Set global parameters of calculation.
set globals {
  basis sto-3g
  freeze_core false
  fail_on_maxiter true
  df_scf_guess true
  opdm true
  tpdm true
  soscf false
  scf_type direct
  maxiter 1e6
  num_amps_print 1e6
  r_convergence 1e-6
  d_convergence 1e-6
  e_convergence 1e-6
  ints_tolerance EQUALITY_TOLERANCE
  damping_percentage 0
}

# Run self-consistent field (SCF) calculation.
if True:
  try:
    hf_energy, hf_wavefunction = energy('scf', return_wfn=True)
    if False:
      print('Hartree-Fock energy for {} ({} electrons) is {}.'.format(
          molecule.name, molecule.n_electrons, hf_energy))
  except:
    if False:
      print('WARNING: SCF calculation failed.')
    else:
      raise
  else:
    # Get orbitals and Fock matrix.
    molecule.hf_energy = hf_energy
    molecule.nuclear_repulsion = mol.nuclear_repulsion_energy()
    molecule.canonical_orbitals = numpy.asarray(hf_wavefunction.Ca())
    molecule.n_orbitals = molecule.canonical_orbitals.shape[0]
    molecule.n_qubits = 2 * molecule.n_orbitals
    molecule.orbital_energies = numpy.asarray(hf_wavefunction.epsilon_a())
    molecule.fock_matrix = numpy.asarray(hf_wavefunction.Fa())

    # Get integrals using MintsHelper.
    mints = MintsHelper(hf_wavefunction.basisset())
    molecule.one_body_integrals = one_body_basis_change(
        numpy.asarray(mints.ao_kinetic()), molecule.canonical_orbitals)
    molecule.one_body_integrals += one_body_basis_change(
        numpy.asarray(mints.ao_potential()), molecule.canonical_orbitals)
    two_body_integrals = numpy.asarray(mints.ao_eri())
    two_body_integrals.reshape((molecule.n_orbitals,
                                molecule.n_orbitals,
                                molecule.n_orbitals,
                                molecule.n_orbitals))
    two_body_integrals = numpy.einsum('psqr', two_body_integrals)
    two_body_integrals = two_body_basis_change(
        two_body_integrals, molecule.canonical_orbitals)
    integrals_name = molecule.data_handle() + '_eri'
    numpy.save(integrals_name, two_body_integrals)
    molecule.save()

# Perform MP2 energy calculation if there are at least two electrons.
if False:
  try:
    assert molecule.n_electrons > 1
    mp2_energy = energy('mp2')
    if False:
      print('MP2 energy for {} ({} electrons) is {}.'.format(
          molecule.name, molecule.n_electrons, mp2_energy))
  except:
    if False:
      print('WARNING: MP2 calculation failed.')
    else:
      raise
  else:
    molecule.mp2_energy = mp2_energy
    molecule.save()

# Perform configuration interaction singles and doubles (CISD) calculation.
if False:
  set qc_module detci
  try:
    cisd_energy, cisd_wavefunction = energy('cisd', return_wfn=True)
    if False:
      print('CISD energy for {} ({} electrons) is {}.'.format(
          molecule.name, molecule.n_electrons, cisd_energy))
  except:
    if False:
      print('WARNING: CISD calculation failed.')
    else:
      raise
  else:
    # For the functions below, "a" and "b" refer to "up and "down" spins.
    molecule.cisd_energy = cisd_energy

    # Get 1-RDM from CISD calculation.
    cisd_one_rdm_a = numpy.array(cisd_wavefunction.get_opdm(
        0, 0, 'A', True)).reshape(molecule.n_orbitals, molecule.n_orbitals)
    cisd_one_rdm_b = numpy.array(cisd_wavefunction.get_opdm(
        0, 0, 'B', True)).reshape(molecule.n_orbitals, molecule.n_orbitals)

    # Get 2-RDM from CISD calculation.
    cisd_two_rdm_aa = numpy.array(cisd_wavefunction.get_tpdm(
        'AA', False)).reshape(molecule.n_orbitals, molecule.n_orbitals,
                              molecule.n_orbitals, molecule.n_orbitals)
    cisd_two_rdm_ab = numpy.array(cisd_wavefunction.get_tpdm(
        'AB', False)).reshape(molecule.n_orbitals, molecule.n_orbitals,
                              molecule.n_orbitals, molecule.n_orbitals)
    cisd_two_rdm_bb = numpy.array(cisd_wavefunction.get_tpdm(
        'BB', False)).reshape(molecule.n_orbitals, molecule.n_orbitals,
                              molecule.n_orbitals, molecule.n_orbitals)

    # Get overall RDMs.
    cisd_one_rdm, cisd_two_rdm = unpack_spatial_rdm(
        cisd_one_rdm_a, cisd_one_rdm_b,
        cisd_two_rdm_aa, cisd_two_rdm_ab,
        cisd_two_rdm_bb)

    # Store 1-RDM in molecule file, 2-RDM separately in other file.
    molecule.cisd_one_rdm = cisd_one_rdm
    cisd_rdm_name = molecule.data_handle() + '_cisd_rdm'
    numpy.save(cisd_rdm_name, cisd_two_rdm)
    molecule.save()

# Perform exact diagonalization.
if True:
  set qc_module detci
  try:
    fci_energy, fci_wavefunction = energy('fci', return_wfn=True)
    if False:
      print('FCI energy for {} ({} electrons) is {}.'.format(
          molecule.name, molecule.n_electrons, fci_energy))
  except:
    if False:
      print('WARNING: FCI calculation failed.')
    else:
      raise
  else:
    # For the functions below, "a" and "b" refer to "up and "down" spins.
    molecule.fci_energy = fci_energy

    # Get 1-RDM from FCI calculation.
    fci_one_rdm_a = numpy.array(fci_wavefunction.get_opdm(
        0, 0, 'A', True)).reshape(molecule.n_orbitals, molecule.n_orbitals)
    fci_one_rdm_b = numpy.array(fci_wavefunction.get_opdm(
        0, 0, 'B', True)).reshape(molecule.n_orbitals, molecule.n_orbitals)

    # Get 2-RDM from FCI calculation.
    fci_two_rdm_aa = numpy.array(fci_wavefunction.get_tpdm(
        'AA', False)).reshape(molecule.n_orbitals, molecule.n_orbitals,
                              molecule.n_orbitals, molecule.n_orbitals)
    fci_two_rdm_ab = numpy.array(fci_wavefunction.get_tpdm(
        'AB', False)).reshape(molecule.n_orbitals, molecule.n_orbitals,
                              molecule.n_orbitals, molecule.n_orbitals)
    fci_two_rdm_bb = numpy.array(fci_wavefunction.get_tpdm(
        'BB', False)).reshape(molecule.n_orbitals, molecule.n_orbitals,
                              molecule.n_orbitals, molecule.n_orbitals)

    # Get overall RDMs.
    fci_one_rdm, fci_two_rdm = unpack_spatial_rdm(
        fci_one_rdm_a, fci_one_rdm_b,
        fci_two_rdm_aa, fci_two_rdm_ab, fci_two_rdm_bb)

    # Store 1-RDM in molecule file, 2-RDM separately in other file.
    molecule.fci_one_rdm = fci_one_rdm
    fci_rdm_name = molecule.data_handle() + '_fci_rdm'
    numpy.save(fci_rdm_name, fci_two_rdm)
    molecule.save()

# Perform coupled cluster singles and doubles (CCSD) calculation.
if False:
  set qc_module ccenergy
  try:
    ccsd_energy = energy('ccsd')
    if False:
      print('CCSD energy for {} ({} electrons) is {}.'.format(
          molecule.name, molecule.n_electrons, ccsd_energy))
  except:
    if False:
      print('WARNING: CCSD calculation failed.')
    else:
      raise
  else:
    molecule.ccsd_energy = ccsd_energy

    # Merge CC amplitudes into molecule by parsing
    psi_filename = outfile_name()
    ccsd_amplitudes = parser_functions.\
      parse_psi4_ccsd_amplitudes(2 * molecule.n_orbitals,
                                 molecule.get_n_alpha_electrons(),
                                 molecule.get_n_beta_electrons(),
                                 psi_filename)
    molecule.ccsd_amplitudes = ccsd_amplitudes
    molecule.save()
--------------------------------------------------------------------------

    Molecular point group: c1
  Charge       = 0
  Multiplicity = 1
  Basis Set: STO-3G
  Basis Set:
  @RHF Final Energy:    -7.86256778568137
    Total Energy =                         -7.8625677856813700
    Molecular point group: c1

    Geometry (in Angstrom), charge = 0, multiplicity = 1:

       Center              X                  Y                   Z               Mass
    ------------   -----------------  -----------------  -----------------  -----------------
          LI          0.000000000000     0.000000000000    -0.182125789427     7.016004548000
           H          0.000000000000     0.000000000000     1.267874210573     1.007825032070

  Charge       = 0
  Multiplicity = 1
  Basis Set: STO-3G
  Basis Set:

    Orbital Energies (a.u.)
    -----------------------

    Doubly Occupied:

       1A     -2.346243     2A     -0.297481

  @RHF Final Energy:    -7.86256778568137

   => Energetics <=

    Nuclear Repulsion Energy =              1.0948493970827586
    One-Electron Energy =                 -12.6273851141982476
    Two-Electron Energy =                   3.6699679314341154
    DFT Exchange-Correlation Energy =       0.0000000000000000
    Empirical Dispersion Energy =           0.0000000000000000
    PCM Polarization Energy =               0.0000000000000000
    EFP Energy =                            0.0000000000000000
    Total Energy =                         -7.8625677856813745
*** Psi4 exiting successfully. Buy a developer a beer!
